<?xml version="1.0"?>
<VTKFile type="UnstructuredGrid" version="0.1" byte_order="LittleEndian">
	<UnstructuredGrid>
		<Piece NumberOfPoints="6158" NumberOfCells="3078">
			<Points>
				<DataArray type="Float64" NumberOfComponents="3" format="ascii">
					5000 5000 5000
					-5000 5000 5000
					5000 -5000 5000
					-5000 -5000 5000
					5000 5000 -5000
					-5000 5000 -5000
					5000 -5000 -5000
					-5000 -5000 -5000
					4971.62 -216.065 4971.62
					4971.62 4971.62 -216.065
					-216.065 4971.62 4971.62
					216.065 -4971.62 -4971.62
					-4971.62 -4971.62 216.065
					-4971.62 216.065 -4971.62
					5602.82 2875.3 2797.64
					4725.28 -4688.49 -2521.95
					2797.63 5602.81 2875.34
					-5603.38 -2795.2 -2876.45
					-4705.81 2658.85 4727.96
					-2577.78 4664.6 4759.57
					-2747.27 3026.99 5590.85
					2791.71 -3234.71 5560.38
					4755.5 -2561.08 4665.3
					5590.79 -2746.35 3026.93
					5560.36 2791.42 -3232.85
					4617.53 4800.33 -2549.48
					3026.78 5590.83 -2746.66
					-3238.54 5557.51 2760.91
					-4664.66 2577.87 -4759.52
					3234.98 -2791.81 -5560.38
					2561.08 -4755.48 -4665.32
					2747.13 -5590.9 -3026.64
					-2792.86 -5561.67 3227.16
					-4755.5 -4665.3 2561.1
					-5590.75 -3027.29 2746.43
					-5557.51 3238.55 -2760.9
					2512.26 1304.92 5507.39
					3936.06 2829.14 5373.21
					-2617.41 -1619.59 5524.69
					-3841.42 -2871.64 5412.89
					5522.63 2431.46 1630.18
					5208.95 4174.39 2770.58
					5524.3 -2621.66 -1612.86
					5415.53 -3832.29 -2867.33
					1606.84 5521.14 2421.5
					2771.25 5346.38 3983.08
					-1550.08 5518.98 -2693
					-2912.23 5430.45 -3801.02
					-1366.23 -2542.27 -5507.32
					-2780.02 -3933.61 -5370.06
					1618.25 2615.49 -5524.58
					2878.39 3862.76 -5402.16
					-2542.33 -5507.48 -1364.76
					-3935.19 -5370.63 -2794.01
					2621.67 -5524.23 1611.45
					3809.42 -5424.16 2871.19
					-5520.83 -1602.63 -2413.57
					-5351.7 -2769.81 -3974.3
					-5524.05 1608.65 2621.69
					-5430.85 2909.9 3798.6
					-2712.86 4119.4 5245.41
					-1347.24 3427.28 5471.8
					2481.12 -3956.43 5317.5
					1325.7 -2611.34 5510.76
					1280.25 -3383.23 5480.02
					5470.04 -1321.67 3436.95
					5317.89 2483.24 -3956.33
					5510.71 1325.27 -2639.03
					5480.71 1291.94 -3371.61
					4120.9 5243.21 -2709.74
					2749.51 5516.58 -1570.66
					3442.34 5469.08 -1331.55
					-3859.49 5421.56 3053.43
					-2613.95 5510 1337.19
					-3363.45 5482.84 1285.05
					-4119.4 2712.93 -5245.43
					-2612.24 1367.36 -5511.26
					-3409 1358.04 -5473.74
					3956.47 -2483.59 -5317.88
					2620.1 -1319.77 -5511.05
					3364.52 -1288.69 -5482.26
					1578.25 -5516.86 -2750.24
					1313.43 -5468.34 -3447
					-2483.55 -5317.88 3956.46
					-1354.05 -5510.4 2640.46
					-1284.82 -5481.18 3373.76
					-5515.94 -2723.97 1543.89
					-5468.77 -3446.17 1329.84
					-5421.59 3859.52 -3053.4
					-5510.37 2640.89 -1354.2
					-5480.98 3369.95 -1292.04
					3001.9 -1179.1 5522.89
					-2968.36 1192.43 5521.59
					-5520.87 -1203.45 2958.3
					2499.6 5507.33 1380.84
					5521.8 -2950.41 1174.87
					2976.96 -5520.94 -1196.58
					1359.8 2484.04 5505.66
					1219.83 5519.93 -2994.22
					-1193.15 2941.65 -5520.77
					1174.63 -3011.11 -5522.41
					-3005.68 -5523.66 1163.03
					-2501.69 -1331.42 -5506.76
					-1578.79 -2378.69 5519.15
					2497.13 1324.53 -5506.88
					-5510.67 2525.45 1433.52
					4880.99 1067.11 4769.57
					-4082.03 -4082.03 5429.69
					-4900.04 -3510.28 4770.19
					-3929.01 -314.647 5445.73
					5482.82 3823.19 187.55
					5429.69 -4082.03 -4082.03
					4786.23 -4909.01 -3591.06
					5406.05 -4034.32 -280.072
					77.6476 5419.6 4037.76
					-4082.03 5429.69 -4082.03
					-139.389 5464.31 -3902.96
					-983.409 -4825.81 -4853.89
					4082.03 4082.03 -5429.69
					3503.4 4867 -4801.16
					372.304 3928.36 -5442.44
					4082.03 -5429.69 4082.03
					4883.36 -4785.31 3505.11
					3961.86 -5448.69 36.9624
					-5428.86 -360.62 -3977.24
					-5429.69 4082.03 4082.03
					-5449.11 351.993 3908.89
					4082.03 -4082.03 5429.69
					5016.25 779.746 -4687.39
					5429.69 4082.03 -4082.03
					-4687.2 5016.42 779.634
					-4082.03 5429.69 4082.03
					4676.23 -830.474 -5008.04
					4082.03 -4082.03 -5429.69
					2038.86 -48.9141 -5482.52
					-831.509 -5007.71 4676.16
					-4082.03 -5429.69 4082.03
					-5008.08 4676.18 -830.365
					-5429.69 4082.03 -4082.03
					4102.59 2227.32 5217.76
					5428.82 3644.67 1487.75
					5177.49 -4191.1 -1754.71
					1489.13 5428.71 3644.85
					-1827.27 5278.59 -3997.62
					-2222.16 -4156.98 -5179.6
					1776.72 4137.4 -5215.14
					-4088.73 -5225.55 -2238.05
					4133.36 -5217.29 1787.08
					-5429.58 -1503.83 -3639.55
					-5144.39 -2241.38 -4201.81
					-2036.08 3855.33 5344.14
					5334.16 -2021.72 3880.22
					3856.44 5343.68 -2035.29
					-3956.2 5293.85 2328.56
					-3855.48 2037.52 -5344.16
					2021.5 -5334.07 -3880.43
					-5334.1 -3880.41 2021.86
					-5293.94 3956.14 -2328.98
					3591.3 -1097.88 5476.06
					-3564.33 2410.3 5454.35
					-3941.69 1774.32 5316.25
					-5454.17 -2409.52 3564.61
					-5318.24 -1775.22 3938.26
					5453.42 -3574.23 2426.48
					5346.71 -3873.63 1763.14
					3645.87 -5425.15 -2356.32
					2409.91 5453.87 -3565.83
					1785.05 5312.26 -3946.89
					-2394.85 3579.37 -5448.24
					-1730.61 3889.61 -5344.44
					1096.04 -3592.14 -5476.01
					-3592.42 -5475.96 1095.67
					-1583.14 -3620.64 5430.92
					-2182.12 -3803.28 5371.28
					1563.18 -5430.25 3619.83
					2180.85 -5371.35 3802.72
					5431.03 -1582.63 -3619.83
					5371.28 -2182.19 -3803.06
					3620.54 1582 -5430.89
					3803.15 2181.57 -5371.3
					-3893.3 5320.35 -1676.7
					-5329.92 3871.63 1670.11
					4105.95 3992.47 5417.64
					1251.22 284.895 5323.76
					2256.71 848.455 5501.28
					4332.02 1610.09 5106.17
					-3811.09 -3421.38 5473.93
					-1278.43 -467.5 5337.18
					-2279.93 -925.12 5502.61
					-4488.19 -766.824 5158.05
					-4340.81 -1618.44 5099.01
					5417.64 4105.94 3992.47
					5359.95 1388.37 444.684
					5463.23 1973.07 881.186
					5052.93 4624.79 854.196
					5124.43 4310.5 1567.29
					5474.97 -3807.18 -3420.67
					5347.59 -1343.26 -384.955
					5503.24 -2289.15 -903.698
					3992.47 5417.64 4105.95
					3905.88 5068.71 4693
					397.134 5348.12 1346.77
					895.817 5500.74 2248.24
					852.866 5053.64 4624.07
					1566.72 5124.63 4310.29
					-360.188 5344.31 -1333.07
					-904.548 5502 -2268.13
					-3992.47 -4105.94 -5417.64
					-3923.33 -4658.13 -5108.46
					-644.087 -1549.4 -5393.94
					-839.441 -2259.32 -5502.3
					3426.82 3808.25 -5475.11
					395.383 1399.29 -5362.18
					906.388 2266.76 -5502.27
					762.398 4500.14 -5152.9
					1493.83 4516.12 -4994.65
					-4105.69 -5417.64 -3992.68
					-4657.98 -5108.59 -3923.4
					-1374.5 -5354.9 -438.079
					-2261.93 -5502.26 -859.247
					-4425.98 -5154.38 -901.468
					3804.63 -5475.6 3419.71
					1367.13 -5355.14 447.604
					2286.85 -5502.67 897.823
					3899.32 -5441.55 522.271
					4523.86 -5139.37 768.513
					-5417.64 -3992.68 -4105.69
					-5354.92 -438.1 -1374.57
					-5499.45 -890.941 -2241.03
					-5117.47 -800.724 -4546.5
					-5107.09 -1567.46 -4339.52
					-5355.06 447.25 1366.79
					-5502.66 897.229 2286.48
					-5160.13 781.557 4479.95
					-5099.76 1619.64 4339.43
					-3773.84 4299.96 5305.08
					-3233.7 4442.61 5109.63
					-1681.43 2070.37 5516.66
					1129.95 -4099.58 5298.89
					1314.31 -2026.3 5495.72
					5307.63 -3789.29 4301.8
					5127.35 -3251.83 4413.83
					5500.73 -1314.4 2065.87
					5159.69 1232.66 -4331.99
					5500.94 1339.35 -2061.26
					4395.82 5142.45 -3251.68
					-4331.92 5160.01 1231.48
					-2056.4 5499.29 1321.64
					-4299.72 3773.92 -5305.18
					-4442.64 3233.73 -5109.62
					-2092.65 1201.71 -5493.63
					4324.14 -1240.97 -5163.04
					2042.45 -1298.19 -5496.2
					3789.26 -5307.6 -4301.83
					3251.85 -5127.35 -4413.83
					1201.9 -5505.94 -2271.05
					-1228.18 -5149.49 4348.76
					-1099.73 -5506.19 2204.41
					-5307.88 -4301.32 3789.86
					-5127.4 -4413.78 3251.94
					-5499.85 -2064.36 1320.07
					-5150.02 4348.63 -1226.27
					-5503.47 2175.29 -1097.62
					4539.22 -1031.29 5067.81
					5391.04 370.342 4099.08
					-4188.83 407.289 5345.57
					-2026.07 634.516 5477.25
					-4276.46 3787.12 5313.04
					-5319.67 -3812.1 4266.99
					5464.72 2018.99 -693.966
					1951.69 5486.94 1333.06
					5246.04 -4421.15 236.691
					5480.08 -2049.86 640.103
					5316.81 -4271.23 3802.06
					4397.92 -5244.93 -431.601
					4255.14 -5322.93 -3787.37
					-606.843 5478.3 2020.54
					-3520.65 5218.97 4377.77
					1144.29 1767.15 5454.89
					620.74 5478.04 -2022.4
					3595.04 5246.3 -4364.83
					-3768.24 4281.49 -5309.01
					1031.21 -4539.22 -5067.83
					636.469 -2022.49 -5476.73
					-703.495 -5183.32 -4460.59
					-483.651 -5442.31 -1828.87
					-1125.35 -5450.73 -1741.08
					-4539.26 -5067.4 1032.06
					-2030.89 -5478.11 640.511
					-5356.22 -4129.25 -634.172
					-5441.89 -1826.19 -484.831
					-5450.42 -1738.46 -1124.74
					-5466.38 792.584 -1925.26
					-5219.01 3520.67 -4377.72
					-4080.45 -638.988 -5380.74
					-1934.75 -68.4053 -5468.18
					-1779.84 -1102.93 -5452.93
					-785.974 -4534.6 5131.2
					-209.903 -1703.02 5422.28
					-1362.61 -1890.05 5483.37
					828.23 -5052.39 4608.65
					1258.52 -5499.75 2256.8
					5126.94 -799.725 -4536.87
					5499.74 -1258.14 -2256.87
					4542.18 603.236 -5152.78
					1929.37 1316.36 -5484.93
					-4536.92 5126.91 -799.718
					-2160.55 5496.53 -1092.28
					-5152.72 4542.27 603.279
					-5491.56 2106.48 1160.92
					-2865.76 -899.008 5538.09
					5538.19 2786.37 888.732
					5538.28 -2865.31 -900.304
					860.745 5542.92 2848.72
					-835.372 5545.4 -2842.04
					-2771.08 5100.03 -4344.46
					889.189 2841.91 -5539.89
					2865.16 -5538.33 894.821
					-5542.93 -861.168 -2847.61
					-5538.43 894.282 2863.79
					-5106.35 2763.14 4336.22
					-2735.44 3555.23 5500.98
					-2307.7 2674.32 5575.15
					-770.088 3425.99 5524.17
					2344.98 -2673.81 5576.63
[...]
			<PointData>
				<DataArray type="Float32" Name="normal" NumberOfComponents="3" ComponentName0="x" ComponentName1="y" ComponentName2="z" format="ascii">
					2.39508 2.38738 2.39069
					-1.98507 1.83734 2.08344
					2.07285 -2.0152 2.09215
					-0.604783 -0.542987 0.582583
					1.83388 2.03804 -1.9805
					-1.83746 1.9858 -2.08352
					2.01322 -2.07563 -2.0955
					-2.39484 -2.38942 -2.391
					4.04254 -0.641289 4.1895
					4.11799 4.05614 -0.642137
					-0.667623 4.11651 4.04178
					0.638115 -4.03616 -4.19896
					-4.07181 -4.10293 0.550006
					-4.11926 0.529208 -4.04671
					6.21298 0.181474 0.028388
					4.51562 -4.32252 0.445941
					0.028842 6.21378 0.176516
					-6.21127 -0.031759 -0.174069
					-4.3724 -0.672973 4.4413
					0.441676 4.32432 4.5136
					0.075115 0.472055 6.21218
					-0.176246 -0.8283 6.15135
					4.47918 0.429526 4.36286
					6.2098 0.076249 0.481535
					6.15251 -0.176766 -0.835143
					4.27768 4.56267 0.393467
					0.472004 6.21213 0.075879
					-0.91722 6.13575 -0.150707
					-4.3244 -0.44207 -4.51352
					0.82842 0.176042 -6.15136
					-0.42957 -4.47919 -4.36285
					-0.00951638 -0.87526 -0.483559
					0.198694 -6.15165 0.789295
					-4.47921 -4.36283 -0.42961
					-6.21003 -0.484219 -0.074908
					-6.13581 0.917071 0.150812
					-0.153071 -0.014744 6.27677
					2.56423 -0.569921 5.63166
					-0.028312 0.200863 6.27599
					-2.42757 0.509278 5.70423
					0.978783 -0.0129713 -0.204488
					5.29077 3.24635 -0.66499
					6.27583 -0.044012 0.20357
					5.7014 -2.41204 0.586827
					-0.218675 6.27348 -0.13571
					nan nan nan
					0.099134 6.27447 -0.154437
					nan nan nan
					0.058771 0.086224 -6.27654
					0.574311 -2.54616 -5.63104
					-0.199998 0.024365 -6.27577
					-0.602067 2.48807 -5.66942
					0.100826 -6.27711 0.049538
					-0.343819 -0.762956 0.547436
					0.042948 -6.27584 -0.203976
					2.30946 -5.76732 -0.503917
					-6.2736 0.219685 0.136338
					-5.55558 0.559744 -2.74155
					-6.27587 -0.202084 0.039142
					-5.84292 -0.446757 2.05624
					0.533016 3.25996 5.30423
					-0.278691 1.11058 6.15193
					-0.397427 -2.71642 5.58258
					0.008077 0.015009 6.27968
					0.37041 -0.939609 6.18102
					6.14887 -0.295624 1.11322
					5.5836 -0.393093 -2.71503
					6.27857 0.003859 -0.040459
					6.20413 0.389023 -0.823461
					3.26428 5.30303 0.526554
					0.16391 6.27449 0.142189
					1.12121 6.14894 -0.302423
					-0.341955 0.937684 -0.0617657
					0.00344 6.27974 0.001886
					-0.822402 6.20502 0.37086
					-3.25595 -0.53372 -5.30608
					-0.012071 -0.063285 -6.27948
					-1.05203 0.244976 -6.15939
					2.71737 0.394282 -5.58238
					nan nan nan
					0.751403 -0.32908 -6.22125
					-0.0236455 -0.986445 -0.162379
					0.293345 -6.14652 -1.13268
					nan nan nan
					-0.024071 -6.27915 0.045475
					-0.332032 -6.20271 0.8505
					-6.27502 -0.12354 -0.14032
					-6.14482 -1.13299 0.303275
					-5.78285 2.11322 0.384073
					-6.27914 0.041265 -0.017435
					-6.20227 0.834176 -0.383819
					nan nan nan
					-0.250635 0.172684 6.2659
					-0.981243 -0.0285492 0.190648
					-0.16899 6.27602 -0.136601
					0.97577 -0.0112468 0.21851
					0.252626 -6.26105 -0.264233
					nan nan nan
					0.026234 0.947018 -0.320106
					-0.18713 0.05386 -6.27741
					0.234484 -0.252455 -6.26835
					-0.032093 -0.963365 0.266267
					0.225935 0.103809 -6.27407
					0.238119 0.188863 6.27306
					nan nan nan
					-0.993242 -0.0125691 -0.115382
					4.42699 1.2227 4.17521
					nan nan nan
					nan nan nan
					-1.85597 -0.313822 5.94857
					6.01792 1.56432 0.096965
					5.62421 -0.855627 -0.95306
					nan nan nan
					5.8879 -2.04885 -0.256558
					0.043894 5.90914 1.98033
					-0.824617 5.66042 -0.758701
					-0.133978 5.96109 -1.80525
					-1.21369 -4.19125 -4.4252
					nan nan nan
					-1.15576 4.39242 -4.31289
					0.312462 1.80035 -5.96006
					0.854551 -5.62479 0.953408
					4.50857 -4.19513 -1.06762
					1.86699 -5.95355 0.024682
					-5.90201 -0.326695 -1.97634
					-0.64435 0.093858 0.758949
					-5.95235 0.329939 1.83978
					0.77872 -0.923076 5.53928
					nan nan nan
					5.53071 0.791323 -0.907732
					-3.67958 4.85688 1.13747
					-0.098545 0.710197 0.697072
					nan nan nan
					0.923082 -0.778714 -5.53929
					-0.967598 0.000818 -6.2033
					-1.23846 -4.90164 3.64025
					-0.137624 -0.977056 0.162548
					-4.91828 3.61867 -1.22197
					-5.56164 0.77181 -0.69716
					3.14026 -0.162171 5.40466
					6.00731 1.65714 0.342683
					5.37214 -3.16442 -0.480618
					0.340709 6.00699 1.65837
					-0.223046 5.60097 -2.73197
					nan nan nan
					0.460735 3.09262 -5.41189
					-3.16432 -5.38731 0.205559
					3.09002 -5.42541 0.353601
					-6.01019 -0.346449 -1.64535
					-5.15081 0.185313 -3.55161
					0.1125 2.40857 5.7678
					5.70043 0.061342 2.53253
					2.40982 5.76707 0.107552
					-2.76156 5.58335 -0.28317
					-2.41477 -0.124479 -5.76548
					nan nan nan
					-5.6986 -2.53832 -0.058572
					-5.58055 2.76491 0.289404
					1.30689 -0.410175 6.09275
					-1.77748 -0.354127 5.97651
					-2.56371 0.279703 5.68432
					-5.98275 0.350361 1.76384
					-5.68338 -0.252474 2.56559
					5.96971 -1.80368 -0.389639
					5.80474 -2.26551 0.286186
					1.91032 -5.92668 0.449491
					-0.355502 5.9816 -1.76662
					0.281599 5.67712 -2.58734
					0.353645 1.80541 -5.97652
					-0.33015 2.33752 -5.76229
					0.409946 -1.30661 -6.09274
					-1.30755 -6.09241 0.410743
					-0.182399 -1.56728 6.04447
					0.169968 -2.32256 5.78316
					0.217081 -6.05639 1.5206
					nan nan nan
					6.04768 -0.175054 -1.54739
					5.78514 0.172487 -2.31506
					1.55512 0.191391 -6.0464
					2.31381 -0.171336 -5.78573
					-0.372606 0.90208 -0.217754
					-5.80478 2.28451 0.235646
					1.23153 0.631423 5.60235
					-1.29616 -0.153619 6.14356
					-0.59029 0.067452 6.25207
					3.42654 0.523742 5.18899
					-1.73999 0.30643 5.90062
					1.30025 0.280746 6.13859
					0.514352 -0.007995 6.26004
					-3.07431 -0.881655 5.36184
					-3.46462 -0.702636 5.14825
					5.60878 1.22646 0.6249
					6.17089 -1.14862 -0.209111
					6.23029 -0.767508 -0.179657
					4.92573 3.64012 1.06951
					5.33611 3.19402 0.704035
					5.90786 -1.72459 0.298336
					0.968996 0.198358 0.147314
					6.2542 0.572037 -0.02071
					0.650716 5.66207 1.14183
					-1.19098 4.82344 3.76021
					-0.154345 6.15587 -1.23495
					-0.00431 6.25082 -0.614205
					nan nan nan
					0.701908 5.33688 3.19307
					0.14195 6.1421 1.30758
					-0.009032 6.25805 0.539723
					-0.654843 -1.10036 -5.68558
					nan nan nan
					0.229301 1.1015 -6.17783
					nan nan nan
					-0.265851 1.66919 -5.93802
					nan nan nan
					-0.004478 -0.57685 -6.2539
					0.913174 3.10282 -5.33745
					0.887122 3.79608 -4.89835
					-1.09453 -5.67666 -0.673017
					-3.6142 -4.9473 1.141
					0.194376 -0.969125 0.151709
					0.0909555 -0.993037 -0.07486
					-0.197666 -0.344646 -0.917686
					1.6985 -5.92223 -0.285329
					-0.19755 -0.958531 -0.205409
					-0.0909544 -0.995655 0.019969
					0.258319 -0.840857 0.475637
					3.26865 -5.18819 1.01411
					-5.59968 -0.637648 -1.2294
					nan nan nan
					-0.786009 0.000805696 0.618215
					-5.21317 -0.947381 -3.26777
					-5.1529 -0.732716 -3.43579
					-6.14811 -0.201875 -1.26973
					-6.25433 0.019764 -0.571499
					nan nan nan
					-5.15278 0.704529 3.45873
					0.320882 2.46786 5.53996
					nan nan nan
					nan nan nan
					nan nan nan
					-0.260876 0.498462 6.25292
					5.52171 0.325161 2.47714
					nan nan nan
					6.25594 0.228276 -0.47321
					5.26555 0.829485 -3.25098
					6.25868 -0.24418 0.442056
					3.61607 5.02177 0.868287
					-3.245 5.26861 0.833352
					0.462126 6.25567 -0.253474
					-2.44434 -0.311398 -5.54406
					-3.72282 -0.956585 -4.92564
					0.456395 -0.212834 -6.25891
					3.15205 -0.794517 -5.32247
					-0.482698 0.241866 -6.25552
					nan nan nan
					-0.937073 -4.95839 -3.6969
					-0.119403 -6.26346 0.42596
					-0.86071 -5.26501 3.24749
					0.085319 -6.25962 -0.459735
					-5.52152 -2.48288 -0.328637
					-4.95875 -3.69648 -0.936487
					-0.970898 0.0719408 -0.228433
					-5.26783 3.23994 -0.858563
					-6.2541 -0.510459 0.10783
					3.57987 -0.859697 5.02237
					5.86156 0.402988 2.08649
					-2.36978 0.476157 5.76359
					0.832897 0.035419 6.22454
					-2.41995 -0.255399 5.57218
					-5.62518 0.20939 2.32507
					6.22513 -0.83256 0.010124
					-0.466292 6.25534 -0.328674
					5.64367 -2.65591 0.294687
					0.990734 0.129018 0.042442
					5.60099 -2.37764 -0.214658
					2.7307 -5.59405 -0.613739
					2.38809 -5.59701 0.171743
					-0.068735 6.21671 -0.895454
					0.790233 5.20825 3.30734
					-0.381861 -0.690132 6.22926
					-0.000899388 0.552635 0.833423
					-0.637003 5.3608 -2.98645
					0.311929 2.44622 -5.55368
					0.860102 -3.57984 -5.0225
					-0.011059 0.844582 -6.22399
					-0.915093 -5.42385 -2.95948
					0.046982 -6.19772 1.0083
					0.410533 -6.22582 0.712889
					-3.57822 -5.02435 0.8621
					0.830675 -6.2249 0.034471
					-5.75132 -2.30263 -0.571088
					-6.19697 1.01405 0.051573
					-6.22541 0.718059 0.409238
					-6.22399 -0.105154 0.830028
					-5.20833 -0.790248 -3.30722
					-2.26294 -0.574536 -5.74106
					1.00927 -0.042293 -6.19638
					0.714615 0.352465 -6.22809
					-1.01608 -3.2154 5.21347
					0.03542 1.13752 6.17594
					0.371326 0.554781 6.24482
					1.14804 -4.98932 3.57738
					-0.183098 -6.26425 -0.391177
					5.20066 -1.02269 -3.23627
					0.919502 0.0268864 0.392164
					3.1288 0.95115 -5.28694
					-0.506384 -0.323934 -6.25168
					nan nan nan
					0.551991 6.25511 0.139156
					-5.28354 3.13399 0.957193
					-6.258 -0.498728 -0.200324
					0.014639 -0.268915 6.27077
					6.26817 -0.091094 0.221169
					6.26947 -0.004187 -0.268531
					0.291274 6.267 -0.011904
					-0.288432 6.26408 0.065535
					0.686163 5.0006 -3.70041
					0.231018 -0.04252 -6.27042
					-0.016605 -6.27071 0.259423
					-6.26686 -0.291535 0.018532
					-6.27044 0.267075 -0.024766
					nan nan nan
					0.299657 1.63576 6.00106
					0.361501 0.080049 6.25646
					-0.549937 0.816854 6.18218
					-0.230034 -0.101912 6.25039
					0.561992 -1.17068 6.10339
					5.96994 0.313384 1.71512
					6.25742 0.352823 0.066638
					6.20916 -0.378191 0.591892
					6.25209 -0.219621 -0.129499
					6.14199 0.467384 -0.98767
					1.64331 5.99812 0.298473
					0.068328 6.25721 0.356127
					0.809929 6.18105 -0.553272
					-0.097186 6.25159 -0.229262
					-1.54056 -0.288886 -6.0163
					-0.314059 -0.194251 -6.23949
					-0.12038 0.074761 -0.989909
					0.101297 0.22842 -6.25013
					-0.306587 -5.97045 -1.7126
					-0.355477 -6.25707 -0.066964
					0.158833 -6.2591 -0.085336
					-0.913205 -0.262492 -0.311696
					-6.25725 -0.069882 -0.355184
					-6.1468 -1.02509 0.487801
					-6.25174 0.098084 0.227808
					-6.134 1.01691 -0.399836
					0.315192 0.26484 6.26406
					nan nan nan
					3.67069 0.404519 5.05451
					5.17403 -0.556358 3.48054
					0.609382 -0.0392423 0.791905
					-0.468624 -0.27252 6.2529
					-0.540375 -0.339985 6.21413
					-6.25306 0.275705 0.465552
					-0.841144 0.0459515 0.538856
					6.21024 0.670135 0.243352
					3.4745 5.18134 -0.528527
					0.791374 6.20019 -0.400799
					6.21725 -0.526482 -0.325551
					0.609891 -6.23455 0.301199
					0.579917 -6.20543 0.354559
					0.0300011 0.764941 0.643401
					-0.46241 2.92182 5.49315
					-0.191741 1.04834 6.11417
					-0.273286 6.25291 -0.46881
					-0.339803 6.21408 -0.539782
					nan nan nan
					-0.235987 -0.364246 -6.26404
					nan nan nan
					-0.40448 -3.67067 -5.05453
					0.639651 -5.11497 -3.54312
					0.251608 -6.20966 -0.668519
					-0.068007 -6.27302 -0.230716
					-0.684466 -6.20696 -0.296303
					-3.67068 -5.05452 -0.404505
					-5.54925 -2.75011 0.591258
					-6.14231 -1.0242 0.429415
					-0.765097 -0.0299885 -0.643216
					-3.52716 0.605612 -5.13146
					-0.669438 0.255447 -6.20958
					0.493416 -1.43775 6.04588
					-0.500269 -6.0453 1.43507
					6.04514 0.501004 -1.43524
					1.43543 -0.499656 -6.04529
					-0.386785 0.468456 0.794321
					-4.79788 3.9667 -0.746201
					nan nan nan
					4.20892 -0.82238 4.28907
					4.76427 0.656552 3.99886
					4.15826 0.911859 4.23237
					nan nan nan
					-4.1807 -0.381539 4.07449
					5.09871 1.24533 1.11618
					4.28799 4.2101 -0.820436
					6.13611 -1.29349 -0.04603
					4.32261 4.42988 0.797797
					4.15943 4.16356 1.02669
					6.13828 1.08662 0.565698
					6.1892 -0.58585 -0.193311
					4.20156 -3.96314 -1.03624
					nan nan nan
					-0.781768 4.28568 4.23259
					0.799868 4.32233 4.42978
					0.140949 6.19427 0.570958
					1.02776 4.15897 4.16265
					-0.713871 6.03192 -0.571137
					-0.122141 6.20775 -0.415214
					-1.12527 4.04724 -4.11975
					-1.22351 -1.22295 -5.1389
					0.75021 -4.25332 -4.28531
					-0.733172 -3.93644 -4.79239
					-0.957386 -4.10225 -4.25118
					0.058517 0.421569 -6.20278
					0.402604 4.18191 -4.06835
					-1.1966 -5.13009 -1.22799
					-0.465761 -0.469272 0.750234
					-4.15052 -4.62824 -0.7366
					-4.16394 -4.17555 -0.856215
					-1.39085 -6.1181 0.011224
					0.693359 -0.664223 0.279395
					0.56419 -6.20129 0.177065
					4.19542 -4.01269 0.413089
					-5.09072 -1.11959 -1.22069
					-4.28802 0.820601 -4.20998
					-4.03451 -0.76093 -4.71088
					-6.19901 -0.146845 -0.55585
					-4.14199 -0.835103 -4.16944
					-6.03315 0.707441 0.610349
					-6.11833 0.011252 -1.3897
					-6.20316 0.164678 0.514047
					-4.20952 0.749704 4.16509
					0.023881 -0.981449 6.20172
					0.549682 -4.05114 4.17965
					5.51076 -0.023589 2.82882
					6.19421 0.021428 -1.01212
					4.16362 0.578911 -4.02343
					0.317427 -0.00380932 0.948275
					-0.977601 6.20329 0.003402
					-4.0236 4.16354 0.578749
					-4.08352 4.52794 -0.838723
					nan nan nan
					1.03064 -0.508246 -6.14488
					4.15855 -0.981444 -4.16336
					2.73309 -0.287203 -5.5616
					0.03746 -5.50024 -2.85294
					-0.023569 -6.19698 0.993774
					nan nan nan
					-0.366111 -5.55733 2.73001
					0.07762 -6.20539 -0.947249
					-6.19617 1.00056 -0.024543
					-4.16315 4.15855 -0.98142
					-0.857526 0.422546 -0.293435
					-4.52792 4.08355 0.838712
					-6.20555 -0.946478 0.077384
					-1.86738 -0.165052 5.9658
					5.96538 -1.86724 -0.244486
					0.108753 6.16107 -1.14306
					0.166558 1.7398 -6.01356
					0.272665 -0.950971 0.145974
					-5.97001 0.15599 1.85657
					0.363971 1.03654 6.16761
					6.16928 0.3667 1.01866
					0.152533 0.918989 0.363584
					-1.06589 -0.332635 -6.16349
					-0.361325 -6.16731 -1.0346
					-6.16757 -1.03192 -0.362751
					1.18978 0.007535 6.15637
					6.08069 -0.275723 1.4801
					nan nan nan
					-6.16766 -0.068553 1.11979
					0.966348 0.257221 0.003116
					6.26535 0.374913 0.071636
					1.46725 6.08478 -0.274844
					6.22623 -0.726557 -0.132805
					1.81556 -5.96721 -0.265634
					-0.017835 6.01516 1.67862
					0.087175 6.26707 0.316663
					-0.198841 1.55177 6.05796
					0.055461 6.1604 -1.1554
					0.129797 0.714162 -6.2274
					-0.006625 -1.19437 -6.15574
					0.303601 -6.06922 -1.49364
					-1.1108 -6.1667 -0.009386
					-0.93434 -0.350482 -0.064581
					-6.01293 0.016691 -1.68416
					-6.26694 -0.08672 -0.321202
					nan nan nan
					-1.30287 6.11322 0.379079
					-6.12979 1.18545 -0.346333
					-0.964647 -0.269487 6.20006
					0.825281 0.416422 6.2119
					6.21129 0.882465 0.275629
					-0.30141 6.20056 -0.943968
					0.423562 6.22608 0.703711
					-0.279151 -0.852783 -6.21485
					0.951226 -6.20191 0.268156
					-0.872426 -6.21291 -0.271616
					-6.20207 0.273768 0.946625
					-6.21222 -0.306274 -0.854928
					-0.310493 0.978793 6.19566
					-0.881164 6.21251 0.256624
					0.887722 6.21181 -0.254914
					0.863494 -0.450994 -6.2024
					0.935623 -0.00959655 -0.352871
					-0.535655 6.25627 0.070356
					-0.911953 3.37177 5.13888
					-0.124397 -1.09509 6.18384
					0.114174 -0.581748 6.25135
					0.036451 -6.27084 0.280439
					-6.26833 0.36735 0.061477
					0.945121 -3.35436 5.16293
					nan nan nan
					-0.945085 -5.16294 3.35437
					-0.08751 -6.21176 -0.919662
					5.16292 0.94512 -3.35438
					6.21179 0.084377 0.919724
					3.35454 -0.945102 -5.16285
					1.00476 6.20013 0.078284
					-6.20965 -0.922947 -0.149103
					nan nan nan
					-1.02964 -0.437018 6.15591
					6.14551 -1.10303 -0.411062
					0.40808 1.00899 -6.16059
					1.00917 -6.16053 0.443986
					-6.15682 0.439498 1.02444
					-0.261382 -0.0878 6.26831
					nan nan nan
					nan nan nan
					6.26759 -0.322409 0.014178
					6.14311 -0.407492 -1.14822
					0.996958 0.0661122 -0.041287
					-0.015563 6.26642 -0.32344
					-1.1758 6.13055 -0.39609
					-0.02123 6.26396 0.392638
					0.042094 0.353073 -6.26686
					1.13657 0.409131 -6.14461
					0.277869 -6.26707 -0.066694
					0.38868 -6.15472 1.03674
					-0.0539483 -0.993486 0.100372
					-6.26341 -0.034461 0.390435
					-0.902581 0.17301 0.394226
					-0.935971 0.00399059 -0.352055
					3.80932 -0.47047 4.94673
					5.54066 0.034783 2.88154
					4.75518 -0.091716 4.08752
					6.11386 0.218837 1.30678
					-3.63377 -0.275554 5.07111
					-5.12281 0.238475 3.57293
					6.12028 1.19308 -0.34078
					4.97174 3.80283 0.259741
					0.448846 0.891495 0.061424
					4.04298 4.78353 0.081454
					1.28168 6.12125 0.242624
					6.1417 -1.07699 0.441674
					5.16947 -3.51189 -0.252799
					1.03062 -6.13658 -0.6019
					3.55855 -5.11691 0.274251
					-0.399216 6.12736 1.12963
					0.167853 5.21727 3.43719
					0.194266 2.76921 5.59952
					0.258289 3.98516 4.82744
					0.239049 1.28653 6.11968
					-0.241872 5.127 -3.56788
					nan nan nan
					0.000379 3.57416 -5.12068
					0.470474 -3.80939 -4.94668
					0.157767 -5.4749 -2.99254
					-0.008804 -4.54105 -4.31989
					-3.80939 -4.94674 0.47022
					-4.92847 -3.85634 -0.135298
					-6.14309 -1.1649 -0.342867
					-6.11471 0.400827 -1.17878
					nan nan nan
					-2.95803 -0.048553 -5.49058
					-4.34703 0.107636 -4.51049
					-1.30842 -0.221863 -6.11298
					0.055037 -3.76678 5.00712
					-0.059228 -5.00977 3.76265
					5.00741 0.055186 -3.76636
					3.78669 -0.109475 -4.99385
					-3.70772 5.05229 -0.008692
					4.21748 0.076985 4.64589
					0.81145 0.089515 6.16268
					2.87353 0.610744 5.51858
					nan nan nan
					-4.21931 -0.020193 4.637
					-0.433286 -0.015298 0.901127
					6.24913 -0.605892 0.191715
					0.796781 0.603978 0.01874
					6.14515 1.00951 0.404604
					5.60797 2.67584 0.185359
					6.25837 0.387093 0.359629
					-0.564914 6.15196 -0.969522
					-0.004844 4.95236 3.82455
					nan nan nan
					0.225554 5.58866 2.74062
					0.340753 6.26327 0.310407
					0.514179 6.15425 1.003
					-0.124709 4.73825 -4.09825
					-0.00920999 0.111605 -0.99371
					-0.431182 5.61206 -2.68322
					0.0714033 0.0273826 -0.997072
					0.58691 1.00733 -6.15831
					-0.131603 -0.843196 -6.15154
					nan nan nan
					-0.385749 -0.392467 -6.25715
					-0.484052 -1.1184 -6.14341
					0.052608 -0.585049 -6.24729
					nan nan nan
					0.062193 2.65962 -5.63281
					0.0221859 -0.893329 0.448856
					0.95617 -6.15617 0.548765
					-0.661327 -0.748605 -0.047313
					-0.831777 -6.15281 -0.133308
					-2.69305 -5.62391 -0.178253
					-0.385597 -6.2585 -0.359368
					-1.03296 -6.13735 -0.716296
					3.91126 -4.90006 -0.005781
					2.68727 -5.6172 0.154501
					-6.15604 0.549091 0.956892
					nan nan nan
					-6.2583 -0.357577 -0.391488
					-6.13768 -0.714863 -1.03221
					-4.63772 0.1263 4.22225
					-0.308579 3.79525 4.9738
					-0.126919 -0.630429 6.24348
					0.464587 -1.25229 6.13043
					1.05977 -3.42648 5.08155
					-0.081215 -4.23003 4.62186
					0.512699 -3.60414 5.07984
					nan nan nan
					-0.212575 1.25089 6.15086
					-0.617566 1.08889 6.14266
					4.79459 -0.374575 4.0143
					0.996982 0.0581369 -0.0514532
					6.16042 0.733683 -0.923466
					4.60916 -0.115852 -4.24558
					nan nan nan
					6.25128 0.110308 0.555395
					0.992422 -0.0569877 0.108859
					6.16228 -0.566711 1.02376
					3.79772 4.97074 -0.319393
					-0.314695 6.26358 0.353233
					-1.10949 6.13638 0.542596
					-4.22006 4.63931 -0.094017
					-0.498452 0.676838 0.541698
					1.10119 6.13037 -0.596192
					nan nan nan
					0.24942 -0.331086 -6.26722
					0.992701 -0.67217 -6.15095